# vtk DataFile Version 1.0
unstructured grid
ascii
DATASET UNSTRUCTURED_GRID
points 1723 float
0 0 0.0
1 0 0.0
1.5 0.1 0.0
2 0 0.0
3 0 0.0
3 1 0.0
0 1 0.0
0.0977657 0 0.0
0.186929 0 0.0
0.268247 0 0.0
0.34241 0 0.0
0.410047 0 0.0
0.471733 0 0.0
0.527992 0 0.0
0.5793 0 0.0
0.626094 0 0.0
0.66877 0 0.0
0.707691 0 0.0
0.743188 0 0.0
0.775561 0 0.0
0.805086 0 0.0
0.832013 0 0.0
0.85657 0 0.0
0.878967 0 0.0
0.899393 0 0.0
0.918022 0 0.0
0.935012 0 0.0
0.950507 0 0.0
0.964638 0 0.0
0.977526 0 0.0
0.98928 0 0.0
1.00968 0.00398949 0.0
1.0194 0.00790082 0.0
1.02915 0.0117337 0.0
1.03893 0.015488 0.0
1.04873 0.0191634 0.0
1.05857 0.0227596 0.0
1.06844 0.0262764 0.0
1.07833 0.0297137 0.0
1.08825 0.0330711 0.0
1.0982 0.0363485 0.0
1.10818 0.0395456 0.0
1.11817 0.0426622 0.0
1.1282 0.0456982 0.0
1.13825 0.0486533 0.0
1.14832 0.0515274 0.0
1.15841 0.0543202 0.0
1.16853 0.0570316 0.0
1.17867 0.0596614 0.0
1.18883 0.0622095 0.0
1.19901 0.0646756 0.0
1.20921 0.0670596 0.0
1.21943 0.0693613 0.0
1.22966 0.0715807 0.0
1.23992 0.0737175 0.0
1.25019 0.0757716 0.0
1.26047 0.0777429 0.0
1.27078 0.0796313 0.0
1.28109 0.0814366 0.0
1.29142 0.0831587 0.0
1.30177 0.0847975 0.0
1.31213 0.0863529 0.0
1.3225 0.0878248 0.0
1.33288 0.0892132 0.0
1.34327 0.0905178 0.0
1.35367 0.0917386 0.0
1.36409 0.0928756 0.0
1.37451 0.0939287 0.0
1.38494 0.0948978 0.0
1.39537 0.0957828 0.0
1.40582 0.0965837 0.0
1.41627 0.0973005 0.0
1.42672 0.097933 0.0
1.43718 0.0984813 0.0
1.44764 0.0989453 0.0
1.45811 0.0993249 0.0
1.46858 0.0996203 0.0
1.47905 0.0998312 0.0
1.48953 0.0999578 0.0
1.51047 0.0999578 0.0
1.52095 0.0998312 0.0
1.53142 0.0996203 0.0
1.54189 0.0993249 0.0
1.55236 0.0989453 0.0
1.56282 0.0984813 0.0
1.57328 0.097933 0.0
1.58373 0.0973005 0.0
1.59418 0.0965837 0.0
1.60463 0.0957828 0.0
1.61506 0.0948978 0.0
1.62549 0.0939287 0.0
1.63591 0.0928756 0.0
1.64633 0.0917386 0.0
1.65673 0.0905178 0.0
1.66712 0.0892132 0.0
1.6775 0.0878248 0.0
1.68787 0.0863529 0.0
1.69823 0.0847975 0.0
1.70858 0.0831587 0.0
1.71891 0.0814366 0.0
1.72922 0.0796313 0.0
1.73953 0.0777429 0.0
1.74981 0.0757716 0.0
1.76008 0.0737175 0.0
1.77034 0.0715807 0.0
1.78057 0.0693613 0.0
1.79079 0.0670596 0.0
1.80099 0.0646756 0.0
1.81117 0.0622095 0.0
1.82133 0.0596614 0.0
1.83147 0.0570316 0.0
1.84159 0.0543202 0.0
1.85168 0.0515274 0.0
1.86175 0.0486533 0.0
1.8718 0.0456982 0.0
1.88183 0.0426622 0.0
1.89182 0.0395456 0.0
1.9018 0.0363485 0.0
1.91175 0.0330711 0.0
1.92167 0.0297137 0.0
1.93156 0.0262764 0.0
1.94143 0.0227596 0.0
1.95127 0.0191634 0.0
1.96107 0.015488 0.0
1.97085 0.0117337 0.0
1.9806 0.00790082 0.0
1.99032 0.00398949 0.0
2.01072 0 0.0
2.02247 0 0.0
2.03536 0 0.0
2.04949 0 0.0
2.06499 0 0.0
2.08198 0 0.0
2.10061 0 0.0
2.12103 0 0.0
2.14343 0 0.0
2.16799 0 0.0
2.19491 0 0.0
2.22444 0 0.0
2.25681 0 0.0
2.29231 0 0.0
2.33123 0 0.0
2.37391 0 0.0
2.4207 0 0.0
2.47201 0 0.0
2.52827 0 0.0
2.58995 0 0.0
2.65759 0 0.0
2.73175 0 0.0
2.81307 0 0.0
2.90223 0 0.0
3 0.1 0.0
3 0.2 0.0
3 0.3 0.0
3 0.4 0.0
3 0.5 0.0
3 0.6 0.0
3 0.7 0.0
3 0.8 0.0
3 0.9 0.0
2.89655 1 0.0
2.7931 1 0.0
2.68966 1 0.0
2.58621 1 0.0
2.48276 1 0.0
2.37931 1 0.0
2.27586 1 0.0
2.17241 1 0.0
2.06897 1 0.0
1.96552 1 0.0
1.86207 1 0.0
1.75862 1 0.0
1.65517 1 0.0
1.55172 1 0.0
1.44828 1 0.0
1.34483 1 0.0
1.24138 1 0.0
1.13793 1 0.0
1.03448 1 0.0
0.931034 1 0.0
0.827586 1 0.0
0.724138 1 0.0
0.62069 1 0.0
0.517241 1 0.0
0.413793 1 0.0
0.310345 1 0.0
0.206897 1 0.0
0.103448 1 0.0
0 0.9 0.0
0 0.8 0.0
0 0.7 0.0
0 0.6 0.0
0 0.5 0.0
0 0.4 0.0
0 0.3 0.0
0 0.2 0.0
0 0.1 0.0
1.06091 0.0317636 0.0
1.13048 0.0557212 0.0
1.20262 0.0754949 0.0
1.27437 0.0894689 0.0
1.34769 0.100133 0.0
1.42102 0.107355 0.0
1.49472 0.108533 0.0
1.56869 0.107088 0.0
1.64277 0.102628 0.0
1.7144 0.0905563 0.0
1.78787 0.0771139 0.0
1.86 0.0582953 0.0
1.92978 0.0367388 0.0
0.891758 0.0163315 0.0
2.10914 0.0172282 0.0
0.758444 0.0271258 0.0
2.23706 0.0261416 0.0
1.97904 0.0182589 0.0
0.971082 0.0106703 0.0
0.609045 0.038697 0.0
2.39897 0.0360926 0.0
2.04425 0.0122247 0.0
2.01758 0.908621 0.0
0.990566 0.92681 0.0
0.436535 0.0508999 0.0
2.55927 0.0460852 0.0
1.70245 0.913612 0.0
1.30301 0.924801 0.0
1.02135 0.0191155 0.0
0.672085 0.922035 0.0
2.31446 0.917483 0.0
1.83033 0.0680724 0.0
1.88952 0.0497638 0.0
1.75669 0.0835083 0.0
1.09883 0.0480014 0.0
1.16115 0.0642971 0.0
1.23294 0.0815291 0.0
1.68227 0.097865 0.0
1.3056 0.0945454 0.0
1.61077 0.104426 0.0
1.53598 0.10785 0.0
1.4633 0.108763 0.0
1.37898 0.10333 0.0
0.0822515 0.453628 0.0
2.91906 0.448522 0.0
0.370256 0.89877 0.0
2.64009 0.91394 0.0
0.305112 0.060624 0.0
2.69269 0.0583562 0.0
0.690099 0.0317679 0.0
2.31553 0.0336215 0.0
0.843228 0.0201559 0.0
2.15623 0.0210251 0.0
0.942112 0.0129703 0.0
2.07375 0.0154147 0.0
1.5015 0.914326 0.0
0.0777878 0.64156 0.0
2.90103 0.655819 0.0
1.80758 0.073065 0.0
1.73516 0.0873939 0.0
1.25298 0.0858177 0.0
1.66373 0.100282 0.0
1.5896 0.10615 0.0
1.32649 0.0975097 0.0
2.01719 0.0101042 0.0
1.18112 0.0706415 0.0
1.51667 0.108149 0.0
1.3999 0.105227 0.0
1.44216 0.107901 0.0
1.08108 0.0426198 0.0
1.04034 0.0258426 0.0
0.995091 0.0103424 0.0
1.95994 0.0269942 0.0
1.90997 0.0436636 0.0
0.0851156 0.251053 0.0
2.91717 0.255382 0.0
0.156415 0.916655 0.0
2.8428 0.909577 0.0
0.142632 0.0709664 0.0
2.86307 0.0709355 0.0
1.99683 0.00963083 0.0
1.6024 0.914678 0.0
1.65118 0.832499 0.0
1.74301 0.830134 0.0
1.69674 0.757168 0.0
1.7767 0.751843 0.0
1.73576 0.687124 0.0
1.80911 0.681696 0.0
1.76886 0.620525 0.0
1.84448 0.608164 0.0
1.70065 0.625399 0.0
1.72995 0.566633 0.0
1.66968 0.568536 0.0
1.69669 0.516888 0.0
1.64125 0.518025 0.0
1.66731 0.471116 0.0
1.71894 0.468198 0.0
1.61478 0.472532 0.0
1.69001 0.426332 0.0
1.73825 0.423169 0.0
1.70505 0.381801 0.0
1.75482 0.382213 0.0
1.73152 0.34783 0.0
1.77243 0.345451 0.0
1.69452 0.348407 0.0
1.75132 0.313974 0.0
1.78996 0.310681 0.0
1.81131 0.341773 0.0
1.82701 0.306963 0.0
1.84969 0.338408 0.0
1.8664 0.303033 0.0
1.88906 0.33517 0.0
1.90741 0.294558 0.0
1.92916 0.330777 0.0
1.94897 0.294923 0.0
1.96887 0.327284 0.0
1.98719 0.290757 0.0
2.01013 0.323785 0.0
2.02728 0.286002 0.0
2.05195 0.320552 0.0
2.06465 0.279729 0.0
2.09949 0.308973 0.0
2.07648 0.357594 0.0
2.12752 0.352737 0.0
2.1023 0.400184 0.0
2.15523 0.395111 0.0
2.17915 0.347892 0.0
2.2085 0.388417 0.0
1.58816 0.517528 0.0
1.56081 0.464982 0.0
2.00365 0.253752 0.0
1.53589 0.516055 0.0
1.51026 0.472007 0.0
1.48426 0.516777 0.0
1.45977 0.471639 0.0
1.48377 0.430093 0.0
1.43573 0.429531 0.0
1.41089 0.469754 0.0
1.38817 0.427927 0.0
1.36321 0.467757 0.0
1.34134 0.425358 0.0
1.31577 0.465663 0.0
1.29513 0.423042 0.0
1.26831 0.463509 0.0
1.24547 0.4158 0.0
1.22014 0.460758 0.0
1.19646 0.420205 0.0
1.17177 0.459584 0.0
1.14832 0.416476 0.0
1.12258 0.457848 0.0
1.09859 0.413584 0.0
1.07257 0.455981 0.0
1.04951 0.410924 0.0
1.02122 0.454281 0.0
0.998809 0.408288 0.0
1.02558 0.366941 0.0
0.977238 0.364118 0.0
0.948489 0.404248 0.0
0.927049 0.361064 0.0
0.897269 0.400488 0.0
1.17455 0.37771 0.0
1.00437 0.325042 0.0
1.32206 0.385088 0.0
1.45683 0.384438 0.0
0.874504 0.35533 0.0
0.843955 0.397224 0.0
0.820506 0.352028 0.0
0.789627 0.39388 0.0
1.7691 0.281841 0.0
1.87789 0.269646 0.0
2.13562 0.442824 0.0
2.2312 0.340361 0.0
2.26362 0.383148 0.0
0.765109 0.346763 0.0
0.733054 0.391077 0.0
0.86998 0.446215 0.0
1.14585 0.503545 0.0
0.708871 0.337839 0.0
0.673546 0.385098 0.0
0.844132 0.311825 0.0
2.28566 0.332555 0.0
2.32169 0.378086 0.0
1.95815 0.364648 0.0
2.29357 0.429046 0.0
2.35843 0.426789 0.0
0.700164 0.441786 0.0
0.636542 0.4363 0.0
0.609837 0.37732 0.0
0.570173 0.430826 0.0
2.38358 0.368934 0.0
2.42371 0.419772 0.0
1.33724 0.50939 0.0
0.545169 0.370823 0.0
2.44854 0.358373 0.0
2.39762 0.48216 0.0
2.46652 0.47523 0.0
2.24924 0.286805 0.0
0.501511 0.424331 0.0
0.530487 0.489788 0.0
0.472116 0.359593 0.0
1.73435 0.283736 0.0
1.74972 0.255301 0.0
1.71993 0.256216 0.0
1.73342 0.231061 0.0
1.70507 0.232213 0.0
1.76128 0.229469 0.0
1.74608 0.207316 0.0
1.77136 0.205223 0.0
1.75767 0.185305 0.0
1.78083 0.183304 0.0
1.73564 0.185492 0.0
1.51027 0.564573 0.0
2.43867 0.542704 0.0
2.51312 0.534287 0.0
1.50311 0.39015 0.0
1.4841 0.353285 0.0
1.52215 0.35436 0.0
1.50191 0.322524 0.0
1.46826 0.321 0.0
1.48391 0.292126 0.0
1.45198 0.292033 0.0
1.51697 0.292105 0.0
1.46828 0.260707 0.0
1.43834 0.264548 0.0
1.45041 0.239706 0.0
1.42475 0.240751 0.0
1.4378 0.218936 0.0
1.41295 0.21862 0.0
1.4612 0.217603 0.0
1.40003 0.239687 0.0
1.38838 0.217627 0.0
1.37527 0.238163 0.0
1.36369 0.216309 0.0
1.35049 0.236966 0.0
1.33889 0.214974 0.0
1.32562 0.235736 0.0
1.31396 0.213597 0.0
1.3006 0.234368 0.0
1.28883 0.212174 0.0
1.27534 0.233326 0.0
1.26414 0.210918 0.0
1.24996 0.23212 0.0
1.23864 0.209478 0.0
1.22423 0.230601 0.0
1.21204 0.207715 0.0
1.1986 0.22933 0.0
1.18556 0.206067 0.0
1.17385 0.228892 0.0
1.16002 0.204492 0.0
1.17339 0.183242 0.0
1.14809 0.181225 0.0
1.13377 0.202384 0.0
1.12259 0.178774 0.0
1.22769 0.190286 0.0
1.10794 0.19942 0.0
1.09778 0.175949 0.0
1.27777 0.190069 0.0
1.11186 0.156241 0.0
1.08785 0.153785 0.0
1.07304 0.172972 0.0
1.06356 0.150408 0.0
1.04823 0.169395 0.0
1.03855 0.145914 0.0
1.02289 0.165943 0.0
1.01295 0.141753 0.0
0.996794 0.162501 0.0
0.986549 0.137485 0.0
0.969773 0.15906 0.0
0.959677 0.133092 0.0
0.94176 0.155493 0.0
1.32774 0.19418 0.0
0.931156 0.128806 0.0
0.912414 0.151954 0.0
1.16222 0.161856 0.0
1.37732 0.197485 0.0
1.00178 0.118346 0.0
1.4233 0.200321 0.0
0.458629 0.48315 0.0
1.05359 0.128374 0.0
1.26192 0.255626 0.0
1.10098 0.132822 0.0
0.588249 0.321441 0.0
0.751247 0.29284 0.0
0.951587 0.183052 0.0
1.76829 0.165139 0.0
1.78979 0.163455 0.0
1.80295 0.180407 0.0
1.81107 0.158298 0.0
2.07803 0.448263 0.0
2.11318 0.495459 0.0
0.489389 0.552569 0.0
1.6918 0.255945 0.0
1.6777 0.232648 0.0
1.66458 0.255881 0.0
1.65145 0.232735 0.0
1.66378 0.211037 0.0
1.63991 0.211051 0.0
1.65115 0.191139 0.0
1.62893 0.190837 0.0
1.6174 0.209421 0.0
1.60707 0.190106 0.0
1.59581 0.20797 0.0
1.5853 0.18934 0.0
1.63728 0.255998 0.0
1.82475 0.177919 0.0
1.83372 0.157883 0.0
[...]
CELL_DATA 3247
SCALARS rho float
LOOKUP_TABLE default
1.21635
0.622647
1.04824
0.903903
0.709908
1.02405
0.86738
0.440644
0.614483
0.546421
0.370584
0.607243
0.491997
0.620406
0.835739
0.752159
0.508669
1.27047
0.675455
0.742222
0.710508
0.378805
0.475259
1.09706
1.10906
0.961898
0.477805
0.756586
0.607271
0.702946
0.666507
1.04492
0.640126
1.12873
0.423078
0.567999
0.845713
0.966666
0.955931
0.562338
0.891787
0.827089
0.425445
0.959785
0.592702
0.750266
1.28656
0.554479
0.651864
0.785842
1.22579
0.610367
0.702538
0.779363
0.855811
1.25477
1.16164
0.896511
0.857762
0.841071
0.471765
0.473173
0.984723
0.598869
0.682087
0.444565
0.397302
0.659509
1.03566
0.862387
0.468637
0.723658
0.583266
0.545365
0.751454
0.672041
1.35994
0.722539
1.19115
0.706955
0.733527
0.833274
0.431676
0.788333
0.505464
1.1094
0.554102
0.816024
0.43843
0.500763
0.386478
0.517388
0.72998
1.08114
0.433108
0.512619
0.7439
0.621409
1.02817
0.610047
0.680518
0.522377
0.516151
1.47132
0.511242
0.706976
0.782596
0.410585
0.504318
0.839361
0.690981
0.4084
0.527437
0.470685
0.602256
0.777609
0.753694
0.689425
0.497144
0.746149
0.678096
0.892748
0.80796
0.827196
0.647144
0.468364
1.34348
0.771145
0.723517
0.9155
0.520963
0.534926
0.79537
0.420105
0.854783
0.659223
0.398544
0.912306
0.450425
0.639426
0.539768
0.417923
0.436431
0.687745
0.616028
0.618302
0.757221
0.786991
0.597583
0.816957
0.539172
0.793214
0.388363
0.897315
0.670032
0.413183
0.77984
0.577287
0.524898
0.471274
0.403008
0.67518
0.566809
0.426819
0.76417
1.15683
0.71204
1.0318
0.484842
0.438757
0.546784
0.577229
0.645613
0.747477
0.455983
0.439661
0.731597
0.38168
0.510603
1.02091
0.571595
0.692522
1.26046
0.491491
0.379532
0.40339
0.488087
0.547969
0.439824
0.509635
0.719805
0.725425
0.375086
0.770915
0.712916
0.912998
0.408774
0.760904
1.31176
0.999343
0.423544
0.425118
0.538769
0.805861
0.571279
0.722313
0.797447
0.498082
1.2579
0.974274
1.06377
0.407233
0.583867
0.577192
1.18483
0.482662
0.442737
0.584773
0.641408
0.985773
0.416695
0.591745
0.45624
0.405522
0.737529
0.849178
0.531837
0.932024
0.413221
0.829119
0.788492
0.533982
0.565738
0.383978
0.647667
0.748743
0.993754
0.788241
0.956025
0.75327
0.39726
0.850447
0.469162
0.514464
0.485162
0.467386
0.471177
0.701928
0.647293
0.543791
0.723364
0.670221
0.492978
0.858265
0.83096
0.41428
0.576743
1.46578
0.827465
0.493888
0.832923
0.770119
0.674953
0.599581
0.841031
0.661348
0.510564
0.500169
0.46563
0.506396
1.0249
0.863581
0.392827
0.520207
1.01398
0.988259
0.734406
0.396812
0.516339
0.678893
0.93664
0.917838
0.605382
0.601176
0.459984
0.552379
0.968217
0.68184
0.797527
0.567672
0.485153
0.822687
0.889868
0.765783
0.77392
0.539279
0.825408
0.783157
0.639273
0.935997
0.403574
0.8335
0.583343
0.763654
0.800293
0.838922
0.630673
0.734684
0.390985
0.698594
0.902004
0.930234
0.803156
1.06724
0.954821
0.851558
0.776162
0.608001
0.851402
0.757441
0.429083
0.802488
0.963632
0.887636
0.597655
0.656904
1.24468
0.61639
0.585067
0.661824
0.778846
1.05731
0.66845
0.525598
0.76476
0.887118
0.549647
0.771192
0.748317
0.955323
0.431244
0.743583
0.628004
0.627209
0.454436
0.477789
0.562454
0.478231
0.875802
0.693225
0.8481
0.805243
0.592436
0.486948
0.618434
0.714926
0.763942
1.10739
1.24243
0.852084
0.961474
0.439212
0.611284
1.0036
0.400509
0.72165
0.794036
0.415972
0.825361
0.845029
0.812317
0.856223
0.480334
0.554107
0.842249
0.911093
0.591415
0.720412
1.05
0.728558
0.889804
0.389757
0.514541
0.835322
0.87092
0.890161
0.808573
0.727314
0.529696
1.17774
0.81744
0.394047
0.714886
0.858213
1.16934
0.572428
0.714574
0.493832
1.20759
1.2821
0.812442
0.520652
1.29407
0.597346
0.400202
0.525276
0.427234
0.881801
0.609279
0.492628
0.536556
1.30259
0.788444
0.730208
0.492188
0.711825
0.483558
0.854375
0.496726
0.48967
1.01871
0.480336
0.477786
0.502104
0.86367
0.770113
0.94906
0.725564
0.884063
0.769956
0.977305
0.730252
0.880651
0.852119
0.682774
0.773287
0.687663
0.691296
0.729344
0.875855
0.802339
0.785857
0.559831
0.705017
0.727652
0.791438
0.418444
0.563701
0.414824
0.777025
0.589586
0.707474
0.675851
0.72057
0.627083
0.783438
0.472923
0.812376
0.538558
0.700954
0.757008
1.09196
0.728403
0.53151
0.64436
0.718037
0.901616
0.867813
0.613148
1.1975
0.740315
0.608658
0.520845
0.440116
0.488282
0.776696
0.563887
0.882053
0.991183
0.597625
0.392428
0.585938
0.612344
0.589442
0.592286
0.924513
0.389907
0.447556
0.42714
0.486039
0.900515
0.893072
0.460397
0.596431
1.02437
0.387094
0.664597
0.479484
0.547921
0.693132
0.762214
0.627157
0.446064
0.790518
0.808458
0.799045
0.762702
0.838451
0.493483
0.799678
0.734993
1.0284
0.645702
0.657366
0.765382
0.733376
0.603284
0.840686
0.706488
0.498166
0.992366
0.610933
0.398909
0.65646
1.0174
1.19245
0.488049
0.873515
0.648367
0.906026
0.443913
0.64055
0.584111
0.866814
0.796976
0.738503
0.395374
0.475055
0.484133
0.539993
0.495711
0.736303
0.643529
0.592297
0.673051
0.624459
0.503411
0.728243
0.568897
1.00936
0.760303
0.395143
0.47104
0.452425
0.406448
0.72844
1.04028
0.4835
0.700478
0.434615
0.810988
0.707389
0.489282
0.603176
0.815646
0.683535
0.44931
0.704638
0.65368
0.567777
0.689394
0.784665
0.43604
0.521922
0.633896
0.706837
1.2616
0.73034
0.452021
0.728278
0.938606
0.481478
0.465771
0.685289
0.700458
0.529255
1.05056
0.850838
0.612849
0.592308
0.516852
0.762204
1.02225
0.87929
1.14397
0.411582
0.692987
0.514084
0.406671
1.23751
1.14468
0.921919
0.463232
0.582773
0.572593
0.542186
0.481204
0.767378
0.565768
0.491218
0.561983
0.430367
0.803068
0.833499
0.736723
0.48992
0.551597
0.394175
0.750348
0.546324
1.01729
0.588149
0.763423
1.32155
0.408231
0.905502
0.836809
0.53317
0.703396
0.565832
0.541999
0.719788
0.734336
0.883117
0.391484
0.586096
0.695202
0.575425
0.44339
0.743567
0.447769
0.457604
0.956522
0.801125
0.87783
0.704079
0.694048
0.782402
0.467793
1.2725
0.485495
0.724574
0.533328
0.7723
1.38454
0.553161
0.71436
0.681849
0.425909
0.715761
0.946614
0.669832
1.08556
0.903152
0.721982
0.425442
0.86179
0.757546
0.716317
0.875822
0.422231
1.06108
0.648528
0.729198
0.688792
0.703807
0.752715
0.849009
0.529576
0.553339
1.09907
0.717352
0.748218
1.02896
0.879841
0.6407
0.721158
0.622428
0.396876
0.973662
0.709263
0.602266
0.90686
0.678043
1.20908
0.650728
0.592593
0.602933
0.874237
0.564316
0.632063
0.684802
1.19697
0.503009
0.730777
0.730981
0.463879
0.740675
0.427871
0.736763
0.795003
0.645883
0.451848
0.505144
0.720496
0.629307
0.688971
0.696394
0.780984
0.873738
0.494071
0.422319
0.709947
0.756371
1.02132
0.6783
0.47857
0.535786
0.537818
0.95822
0.739698
1.00652
0.557946
0.608086
0.559412
0.884886
0.783021
0.652734
0.460818
1.33465
0.744142
0.387511
0.765552
0.721535
0.465528
0.807026
0.873211
0.587601
0.663385
0.556626
0.604705
0.710376
0.50188
0.873102
0.60189
0.788716
0.581238
0.633336
0.687646
0.401409
0.790946
0.785534
0.746058
0.488586
0.727552
0.723375
0.908799
0.589847
0.585345
0.716305
0.617914
0.751595
0.583118
0.580782
0.552443
0.719501
0.595127
1.24624
0.696718
0.547675
0.724717
0.594281
0.426365
0.764048
1.02428
0.601371
0.952625
0.733546
0.514092
1.16093
0.630454
0.842636
1.03395
0.659586
0.592448
0.392826
0.484047
0.806969
0.858163
0.906718
0.528853
0.678116
0.767867
1.01024
0.526575
0.74987
1.1143
0.622685
0.479043
1.24126
0.806896
0.72206
0.711141
0.899363
0.624785
0.405943
0.694374
0.5654
0.428458
0.701097
0.709877
0.612474
1.24525
0.706765
1.07893
0.741423
0.445936
0.666706
0.76829
0.568113
0.963574
0.806126
1.02118
0.797553
0.624008
0.840337
0.771542
1.02793
0.474889
0.805491
0.691008
0.713336
0.408174
0.865536
0.463068
0.674948
0.51689
0.694825
0.742165
0.809843
0.421724
0.540133
0.766316
0.72097
0.886829
1.22644
0.740239
0.499248
0.638262
0.735202
0.735885
0.631458
0.713957
0.859849
1.07083
0.761884
0.70115
0.645077
0.533555
0.972981
0.753395
0.784973
0.771118
0.915604
0.59255
0.372679
0.446625
0.709178
0.685549
0.473344
0.642365
0.438546
0.601152
0.531733
0.527308
0.579148
0.812702
0.881755
0.951458
1.04084
0.465342
0.414895
0.953073
0.877951
0.416827
0.469575
0.568845
0.912301
0.649941
0.75695
1.16953
0.473817
0.549828
0.436841
1.14961
0.741789
0.548531
1.3779
1.27923
0.780655
0.746011
0.591323
0.716877
0.818608
0.696184
0.853004
0.832907
0.89393
0.440688
0.390479
0.418772
0.988126
0.722269
0.760484
0.538958
0.523947
0.874942
0.664143
0.716623
0.795783
0.800254
0.747864
0.682521
0.552813
0.669693
0.636244
1.03052
0.8613
0.509437
0.535861
0.769416
0.728204
0.859391
0.58062
0.700439
0.887004
0.908979
0.789799
0.847702
1.25733
0.776916
0.419904
0.565383
0.848835
0.525249
0.731133
0.754106
1.11149
0.547007
0.574457
0.788562
0.542259
0.507024
0.631764
0.553917
0.81057
0.903823
0.653383
0.544365
0.773538
1.08805
0.433852
0.693659
0.475802
0.429265
0.667564
0.588458
0.716609
0.70573
0.727278
0.677899
1.18541
0.851331
0.687763
1.02026
0.804298
0.840363
0.788105
0.657448
1.02574
0.764979
0.435472
0.410179
0.782243
0.647186
0.436718
0.694161
0.66609
0.684433
0.8902
0.570527
0.864544
0.724006
0.637433
0.687382
0.491288
0.815865
0.561269
1.29662
0.809507
0.892872
0.674927
0.682101
0.387881
0.89089
0.523401
0.656554
0.848617
0.627452
0.707003
0.631065
0.591444
1.24449
0.637882
0.567077
0.562892
0.89599
0.604645
0.66732
0.617696
0.613321
0.649038
0.478795
0.639721
0.776043
0.715821
0.683271
0.57669
0.54546
0.46643
0.607853
0.666949
0.665842
0.657417
0.662647
0.684326
0.597954
0.639348
0.801271
0.581179
0.822424
0.553345
0.699773
0.784434
0.647302
0.765804
1.04922
0.810956
0.58814
0.625132
1.24912
0.551926
0.83538
0.487027
0.901458
0.57037
0.579493
0.582078
0.768706
0.598271
0.462022
0.430821
0.886195
0.675202
0.492557
0.596698
0.454966
0.573933
0.713115
0.731886
0.578162
0.842969
0.779614
0.374195
0.519495
0.956039
0.923275
0.762725
0.681481
0.568535
1.12202
0.559153
0.73676
0.749226
0.533807
0.815755
0.746649
0.575367
0.800744
0.688944
0.549469
0.711207
0.511616
0.655193
0.619204
0.951808
0.559674
0.813512
0.897566
0.856975
0.55418
0.727848
0.532082
0.741618
0.539715
0.799921
0.65477
0.567283
0.90536
0.728455
0.819912
0.900341
0.60836
0.623274
0.780272
0.61607
0.548718
0.603556
0.766877
0.744737
1.14512
0.641943
0.635927
0.668139
1.20269
0.46043
0.572407
0.55986
0.396575
0.974248
0.778019
0.769568
0.697565
0.432662
0.530361
0.537354
0.759757
0.761744
0.626108
1.26108
0.548353
0.911189
0.526002
0.614054
0.545678
0.694923
0.759618
0.419104
0.409367
0.900548
0.45419
0.806525
0.514854
0.623145
0.637429
0.589858
0.815986
0.668399
0.818608
0.53332
0.615741
0.695511
0.679584
0.503802
0.544945
0.727297
0.756268
0.39059
0.687614
0.465677
0.987675
0.595674
0.726011
0.596757
0.503569
0.625754
0.924244
1.26442
0.765766
0.856266
0.689674
0.646646
0.847975
0.86792
0.417691
0.475109
1.09093
0.445746
0.929012
0.492302
0.461046
0.441844
0.413125
0.44273
0.741937
0.843198
0.669339
1.26048
0.626754
0.722966
0.554022
0.402041
0.406279
0.560627
0.832075
0.850655
0.779469
0.880479
1.00322
1.13789
1.23168
0.493399
0.437327
0.835251
0.431324
0.907095
0.582564
0.661836
0.762838
0.569054
1.16314
1.11583
0.581625
0.808157
0.454645
0.915115
0.435631
0.694763
1.26891
0.834961
0.428307
0.679398
0.783334
1.19161
0.797295
0.839741
0.844551
0.855442
0.468224
0.867712
0.941313
0.709721
0.655125
0.43403
0.44967
0.636634
0.395872
0.718251
0.481161
1.27261
0.405019
0.729047
1.01937
1.2154
0.777429
0.844589
0.593041
0.797182
1.17678
0.485066
0.849546
0.866548
0.573576
0.470296
0.39682
0.95484
0.662644
0.706157
1.27889
0.564966
0.575495
1.13364
0.473385
0.550382
0.540883
0.829513
0.612151
0.845826
0.466338
0.697545
0.424911
0.527151
0.920915
0.854902
0.82356
0.442345
0.39056
0.802421
1.30058
0.867572
0.400994
0.756877
0.459186
0.721923
0.619081
0.547951
0.777088
0.507372
0.388701
0.71038
0.74268
0.781048
1.01206
0.673008
0.720035
0.791271
1.28282
0.5727
0.478996
0.666723
1.10217
1.2968
0.442452
0.966314
0.517838
0.663633
0.678894
0.856039
1.24497
0.734085
0.783853
0.78177
0.517843
0.742962
1.25355
1.10938
0.395417
0.634718
0.749078
0.499119
0.485355
0.752551
1.24589
0.772037
0.4392
0.772169
0.445759
0.414266
1.25019
0.560819
0.511838
0.529937
1.05047
0.750056
0.551928
0.737011
1.04457
0.410472
0.86232
0.851504
0.531119
0.758366
0.598946
0.471694
0.530523
0.641109
0.840994
0.734881
0.799155
0.403681
0.63933
0.747651
0.477525
0.77942
1.09373
0.467273
1.32413
0.625295
0.780399
0.860777
0.702668
1.09532
0.557824
0.652882
0.595269
0.786718
0.45701
0.410076
0.941696
0.73176
0.751469
0.964503
0.514718
0.518516
0.44827
0.662442
0.768735
0.686101
0.530664
0.845344
0.661494
0.579642
0.67274
0.70002
0.774651
0.575454
0.521628
0.652243
0.394446
0.704747
0.536432
0.753248
1.36547
0.456509
0.79007
0.686985
0.604025
0.688484
0.880553
0.495413
0.959834
0.613902
0.395062
0.465205
0.502704
0.642196
0.453006
0.733371
0.647071
0.860172
0.726319
0.770206
0.596256
1.11689
0.794417
0.764258
0.679096
1.03582
0.963418
0.762659
1.25611
0.809941
0.46149
0.745465
0.798622
1.03793
0.632418
1.30261
0.39553
0.524009
0.505362
0.452103
0.433196
0.394344
0.637279
0.449584
0.622744
0.676123
1.0858
0.536363
0.622067
0.531916
0.606022
0.723042
1.0258
0.613189
0.77482
0.6421
0.999023
0.569314
0.821515
0.901561
1.26381
0.603171
0.767221
0.593313
0.666588
0.672909
0.758574
0.772979
0.805053
1.13948
0.770716
0.757631
0.64752
0.673783
0.472702
0.391447
0.700232
0.613647
0.557747
0.45848
1.26706
0.550114
0.583267
0.646462
0.546896
0.434998
1.27529
0.73806
0.802494
0.853375
0.903546
0.745981
0.573329
1.18634
0.565265
0.535232
0.903518
0.9658
0.626618
0.574367
0.476663
0.564176
0.694882
0.49044
0.906651
0.770694
0.573025
0.905837
1.34225
0.845154
0.719144
0.915051
0.780022
0.554662
0.809024
0.903334
0.458303
0.552551
0.760744
0.659793
1.28724
0.574657
0.512034
0.771603
0.886941
0.615852
0.962968
0.554312
0.803339
0.488842
0.544864
0.515571
0.606362
0.746406
0.426305
0.555313
0.779063
0.470024
0.840398
0.64958
0.636197
0.82049
1.35453
0.682971
0.528806
0.54313
0.889551
0.436641
0.845504
0.405108
0.574503
0.663051
0.596828
0.466326
0.535128
0.48342
0.74983
0.574835
0.531547
0.773398
0.545769
0.589647
1.30937
0.774275
0.533737
0.520227
1.07981
0.799828
0.417352
0.919069
0.525189
0.440763
0.761176
0.803129
0.809564
0.563736
0.608616
0.457993
0.640639
0.576614
0.72204
0.826602
0.509235
0.507912
0.48653
0.391099
0.894901
0.712534
0.738991
0.573832
0.486704
0.491046
0.741397
0.553595
0.852411
1.0839
0.640756
0.745711
0.844845
0.636511
0.800489
0.845252
0.654112
1.08949
0.503465
0.557043
0.621386
0.49808
0.83687
0.649382
0.812659
0.613924
0.979158
0.566929
1.37324
0.780982
0.609986
0.583031
0.433103
0.551583
1.33529
0.69918
0.767794
0.916301
0.739394
0.529332
0.540261
0.7501
0.763981
0.820344
0.682259
0.449841
0.825518
0.537507
0.774997
0.79806
0.598991
0.584253
0.573181
0.768589
0.755064
0.849546
0.832606
0.542679
0.814144
0.866316
0.579342
0.489112
0.608542
0.457564
1.01709
0.931484
0.876133
0.454777
0.747158
0.994033
0.486624
1.14859
1.10353
0.758234
0.765738
0.584922
0.485279
0.837326
0.545175
0.703602
1.08199
0.498518
1.12395
0.951473
0.453406
0.642959
0.655361
0.638678
0.604065
0.832212
0.553861
0.799857
0.441614
0.520742
0.707912
0.717059
0.595157
0.67694
0.548299
0.660653
0.550513
0.618622
0.787669
0.412452
0.680995
0.690139
1.03493
0.432449
0.783839
0.848089
0.984262
0.841617
0.94428
0.446856
0.859177
0.785207
1.1745
0.472318
1.00962
1.19965
0.525179
0.461377
0.475662
0.462871
1.39025
0.749511
1.2525
0.430105
1.08415
0.799256
0.51336
0.414965
0.906078
0.66959
0.724442
0.509498
0.975842
0.400091
0.846516
0.856458
0.566996
0.426098
0.476453
1.0252
0.896766
0.409096
0.779705
0.898604
0.525674
0.386076
0.450864
0.960333
0.794169
0.859808
0.988467
0.818314
0.756861
0.695019
0.577356
1.02749
0.832793
0.634809
0.469271
1.00205
1.06917
0.47333
1.03369
0.813054
0.663844
0.518261
0.962738
0.559705
0.829683
0.461444
0.808919
0.719878
0.918613
0.56964
0.863265
0.446033
0.686508
0.626633
1.24496
0.940154
0.482626
0.625766
0.747954
0.510806
0.612138
0.929278
0.835441
0.88822
0.841651
0.559265
0.496377
0.438927
0.819859
0.53961
0.419792
0.503558
0.738361
1.15311
0.901881
0.75538
0.837043
0.561991
0.588065
0.594191
0.773982
0.864855
0.852743
0.712273
0.853077
0.729106
0.618117
0.650854
0.400643
0.547004
0.791288
0.419408
0.782253
0.521433
0.72969
0.607147
0.489538
0.601123
0.668055
0.523922
0.609645
0.658986
0.84396
0.766091
0.580366
0.406062
0.501865
0.787559
0.492807
0.849493
0.560516
0.763864
0.413593
0.717247
0.753135
0.876051
0.742951
0.457896
0.573183
0.433753
0.552775
0.745203
0.735926
0.518077
0.842704
0.596748
0.473015
0.563274
0.408546
0.845827
0.775293
0.561125
0.39469
0.510666
0.804916
0.393256
1.1419
1.24731
0.460796
0.453116
0.851605
0.452794
0.840931
0.713695
0.370974
0.750784
1.08172
0.456274
0.471866
0.39493
0.376846
0.592224
0.771222
0.449254
1.01204
0.53837
0.961597
0.408602
0.554396
0.755891
0.647939
0.942771
0.854004
0.390241
0.903591
0.499653
0.763873
0.491688
0.886593
0.6963
0.398108
0.709575
0.480449
0.577198
1.04906
0.892337
0.530631
0.56053
0.693343
0.498073
0.803064
0.851728
0.588661
0.846098
0.492379
0.9528
0.705557
0.58287
0.867411
1.48113
0.863579
0.798691
0.956527
0.711756
0.560158
0.406929
0.568012
0.417557
0.669621
0.523284
0.666808
0.620835
0.961741
0.83378
0.753577
0.813445
0.526699
0.804137
0.651536
0.847958
0.816352
0.657691
0.786789
0.619412
0.831883
0.758854
0.415435
1.2687
0.74473
0.392309
0.955715
0.929354
0.58989
0.963541
0.729329
0.835964
0.795282
0.618765
0.746256
0.616116
0.540151
0.413172
0.676961
0.872578
1.13378
0.918271
0.701682
0.458844
0.456897
0.59787
0.589033
0.538275
1.43029
0.645716
0.552988
0.846508
0.774728
0.566412
0.881269
0.485231
0.512679
0.550157
0.613073
0.782718
0.383565
0.568428
0.900519
0.848797
0.407093
0.532565
0.502697
0.752495
0.540207
0.35818
0.439069
0.483956
0.671906
0.838623
0.55552
0.793536
0.423329
0.883865
1.28541
0.549353
0.725984
0.900314
0.709779
0.74296
0.438721
0.750417
0.836763
0.908564
0.807306
0.574669
0.363915
0.745686
0.668714
0.786785
0.472274
0.803491
0.744406
0.655353
0.742858
0.801075
0.655229
0.637127
0.771251
0.875283
0.721036
0.694066
0.640968
0.74586
0.797626
0.845486
0.577773
0.846768
0.971526
0.499867
0.512035
0.818134
0.514306
0.555413
0.889378
0.876458
0.829612
1.26325
1.01827
1.14003
0.781009
0.839768
0.810677
0.57178
0.632552
0.628436
0.614714
0.526069
0.755008
0.60354
0.599542
0.654368
0.569855
0.665006
0.585662
0.515578
0.524041
0.835397
0.883093
0.628698
0.503289
0.744371
0.488889
0.821181
0.57689
0.779263
0.748384
0.897877
1.31318
0.780337
0.472288
0.768536
0.540227
0.761102
0.765336
0.844723
0.51492
0.516619
0.521942
0.529556
1.258
0.785187
0.762591
0.781598
0.62634
0.604295
0.906017
0.68436
0.903221
0.457713
0.640561
0.562728
0.599761
0.765437
0.758554
0.773438
0.513326
0.56372
0.546358
0.882198
0.721457
0.626869
0.807921
1.16291
0.356027
0.712127
0.554111
0.746211
1.15957
0.552882
0.709207
1.4411
0.863585
0.497689
0.817251
0.463307
0.767144
0.628908
0.781716
0.656725
1.26606
0.67136
0.819812
0.626316
0.637517
0.442119
0.501549
0.561389
0.662789
0.526016
0.655952
0.632296
0.648743
0.581155
0.612902
0.809946
0.412326
0.514414
0.845341
0.60052
0.577523
0.576494
0.635513
0.438831
0.956111
0.639177
0.734252
0.571515
0.755795
0.760957
0.774898
0.746225
0.656664
0.879854
0.671934
0.515418
0.864899
1.03581
0.554923
0.757644
0.823687
0.890945
0.802323
0.499833
0.793393
1.27057
0.751039
0.743718
0.543205
0.810357
0.61226
0.550619
0.779221
0.737672
0.467382
0.792903
0.464183
0.845513
1.20631
0.549466
1.34773
0.583891
0.539883
0.845765
0.44355
1.1822
0.645069
0.632085
0.795237
0.709328
0.455178
0.780823
0.561005
1.487
0.517613
1.33398
0.630254
0.554519
0.798603
0.706752
0.743778
0.941615
0.506059
0.759788
0.90496
0.797299
0.461005
0.608997
0.554804
0.556246
0.469527
0.650864
1.65264
0.9489
0.800143
0.64884
0.447828
0.83305
0.748081
0.513083
0.526781
0.661028
0.704516
0.907905
0.425329
1.29649
0.804815
0.397674
0.485775
1.0122
0.914804
0.610318
0.763581
1.02892
0.771886
0.576771
0.583639
0.881157
0.948686
0.701863
0.66903
0.849722
1.07942
0.640231
0.985173
0.611299
0.664043
0.761173
0.780896
0.799615
0.960177
0.677273
1.37746
0.637338
0.46053
0.93665
0.429464
0.896175
1.01563
0.475301
1.29095
0.702516