# vtk DataFile Version 1.0
unstructured grid
ascii
DATASET UNSTRUCTURED_GRID
points 7465 float
0 0 0.0
1 0 0.0
2 0 0.0
2 2 0.0
0 2 0.0
0 0.25 0.0
2 0.25 0.0
0.0481365 0 0.0
0.0940718 0 0.0
0.137906 0 0.0
0.179737 0 0.0
0.219654 0 0.0
0.257746 0 0.0
0.294095 0 0.0
0.328783 0 0.0
0.361884 0 0.0
0.393472 0 0.0
0.423615 0 0.0
0.45238 0 0.0
0.479829 0 0.0
0.506023 0 0.0
0.53102 0 0.0
0.554873 0 0.0
0.577635 0 0.0
0.599357 0 0.0
0.620085 0 0.0
0.639865 0 0.0
0.658741 0 0.0
0.676753 0 0.0
0.693942 0 0.0
0.710345 0 0.0
0.725997 0 0.0
0.740934 0 0.0
0.755188 0 0.0
0.76879 0 0.0
0.78177 0 0.0
0.794157 0 0.0
0.805977 0 0.0
0.817256 0 0.0
0.82802 0 0.0
0.838291 0 0.0
0.848093 0 0.0
0.857446 0 0.0
0.866372 0 0.0
0.87489 0 0.0
0.883018 0 0.0
0.890774 0 0.0
0.898176 0 0.0
0.905239 0 0.0
0.911979 0 0.0
0.918411 0 0.0
0.924549 0 0.0
0.930406 0 0.0
0.935996 0 0.0
0.941329 0 0.0
0.946419 0 0.0
0.951276 0 0.0
0.955911 0 0.0
0.960334 0 0.0
0.964555 0 0.0
0.968583 0 0.0
0.972426 0 0.0
0.976094 0 0.0
0.979594 0 0.0
0.982934 0 0.0
0.986121 0 0.0
0.989163 0 0.0
0.992065 0 0.0
0.994835 0 0.0
0.997478 0 0.0
1.0025 0 0.0
1.005 0 0.0
1.0075 0 0.0
1.01 0 0.0
1.0125 0 0.0
1.015 0 0.0
1.0175 0 0.0
1.02 0 0.0
1.0225 0 0.0
1.025 0 0.0
1.0275 0 0.0
1.03 0 0.0
1.0325 0 0.0
1.035 0 0.0
1.0375 0 0.0
1.04 0 0.0
1.0425 0 0.0
1.045 0 0.0
1.0475 0 0.0
1.05 0 0.0
1.0525 0 0.0
1.055 0 0.0
1.0575 0 0.0
1.06 0 0.0
1.0625 0 0.0
1.065 0 0.0
1.0675 0 0.0
1.07 0 0.0
1.0725 0 0.0
1.075 0 0.0
1.0775 0 0.0
1.08 0 0.0
1.0825 0 0.0
1.085 0 0.0
1.0875 0 0.0
1.09 0 0.0
1.0925 0 0.0
1.095 0 0.0
1.0975 0 0.0
1.1 0 0.0
1.1025 0 0.0
1.105 0 0.0
1.1075 0 0.0
1.11 0 0.0
1.1125 0 0.0
1.115 0 0.0
1.1175 0 0.0
1.12 0 0.0
1.1225 0 0.0
1.125 0 0.0
1.1275 0 0.0
1.13 0 0.0
1.1325 0 0.0
1.135 0 0.0
1.1375 0 0.0
1.14 0 0.0
1.1425 0 0.0
1.145 0 0.0
1.1475 0 0.0
1.15 0 0.0
1.1525 0 0.0
1.155 0 0.0
1.1575 0 0.0
1.16 0 0.0
1.1625 0 0.0
1.165 0 0.0
1.1675 0 0.0
1.17 0 0.0
1.1725 0 0.0
1.175 0 0.0
1.1775 0 0.0
1.18 0 0.0
1.1825 0 0.0
1.185 0 0.0
1.1875 0 0.0
1.19 0 0.0
1.1925 0 0.0
1.195 0 0.0
1.1975 0 0.0
1.2 0 0.0
1.2025 0 0.0
1.205 0 0.0
1.2075 0 0.0
1.21 0 0.0
1.2125 0 0.0
1.215 0 0.0
1.2175 0 0.0
1.22 0 0.0
1.2225 0 0.0
1.225 0 0.0
1.2275 0 0.0
1.23 0 0.0
1.2325 0 0.0
1.235 0 0.0
1.2375 0 0.0
1.24 0 0.0
1.2425 0 0.0
1.245 0 0.0
1.2475 0 0.0
1.25 0 0.0
1.2525 0 0.0
1.255 0 0.0
1.2575 0 0.0
1.26 0 0.0
1.2625 0 0.0
1.265 0 0.0
1.2675 0 0.0
1.27 0 0.0
1.2725 0 0.0
1.275 0 0.0
1.2775 0 0.0
1.28 0 0.0
1.2825 0 0.0
1.285 0 0.0
1.2875 0 0.0
1.29 0 0.0
1.2925 0 0.0
1.295 0 0.0
1.2975 0 0.0
1.3 0 0.0
1.3025 0 0.0
1.305 0 0.0
1.3075 0 0.0
1.31 0 0.0
1.3125 0 0.0
1.315 0 0.0
1.3175 0 0.0
1.32 0 0.0
1.3225 0 0.0
1.325 0 0.0
1.3275 0 0.0
1.33 0 0.0
1.3325 0 0.0
1.335 0 0.0
1.3375 0 0.0
1.34 0 0.0
1.3425 0 0.0
1.345 0 0.0
1.3475 0 0.0
1.35 0 0.0
1.3525 0 0.0
1.355 0 0.0
1.3575 0 0.0
1.36 0 0.0
1.3625 0 0.0
1.365 0 0.0
1.3675 0 0.0
1.37 0 0.0
1.3725 0 0.0
1.375 0 0.0
1.3775 0 0.0
1.38 0 0.0
1.3825 0 0.0
1.385 0 0.0
1.3875 0 0.0
1.39 0 0.0
1.3925 0 0.0
1.395 0 0.0
1.3975 0 0.0
1.4 0 0.0
1.4025 0 0.0
1.405 0 0.0
1.4075 0 0.0
1.41 0 0.0
1.4125 0 0.0
1.415 0 0.0
1.4175 0 0.0
1.42 0 0.0
1.4225 0 0.0
1.425 0 0.0
1.4275 0 0.0
1.43 0 0.0
1.4325 0 0.0
1.435 0 0.0
1.4375 0 0.0
1.44 0 0.0
1.4425 0 0.0
1.445 0 0.0
1.4475 0 0.0
1.45 0 0.0
1.4525 0 0.0
1.455 0 0.0
1.4575 0 0.0
1.46 0 0.0
1.4625 0 0.0
1.465 0 0.0
1.4675 0 0.0
1.47 0 0.0
1.4725 0 0.0
1.475 0 0.0
1.4775 0 0.0
1.48 0 0.0
1.4825 0 0.0
1.485 0 0.0
1.4875 0 0.0
1.49 0 0.0
1.4925 0 0.0
1.495 0 0.0
1.4975 0 0.0
1.5 0 0.0
1.5025 0 0.0
1.505 0 0.0
1.5075 0 0.0
1.51 0 0.0
1.5125 0 0.0
1.515 0 0.0
1.5175 0 0.0
1.52 0 0.0
1.5225 0 0.0
1.525 0 0.0
1.5275 0 0.0
1.53 0 0.0
1.5325 0 0.0
1.535 0 0.0
1.5375 0 0.0
1.54 0 0.0
1.5425 0 0.0
1.545 0 0.0
1.5475 0 0.0
1.55 0 0.0
1.5525 0 0.0
1.555 0 0.0
1.5575 0 0.0
1.56 0 0.0
1.5625 0 0.0
1.565 0 0.0
1.5675 0 0.0
1.57 0 0.0
1.5725 0 0.0
1.575 0 0.0
1.5775 0 0.0
1.58 0 0.0
1.5825 0 0.0
1.585 0 0.0
1.5875 0 0.0
1.59 0 0.0
1.5925 0 0.0
1.595 0 0.0
1.5975 0 0.0
1.6 0 0.0
1.6025 0 0.0
1.605 0 0.0
1.6075 0 0.0
1.61 0 0.0
1.6125 0 0.0
1.615 0 0.0
1.6175 0 0.0
1.62 0 0.0
1.6225 0 0.0
1.625 0 0.0
1.6275 0 0.0
1.63 0 0.0
1.6325 0 0.0
1.635 0 0.0
1.6375 0 0.0
1.64 0 0.0
1.6425 0 0.0
1.645 0 0.0
1.6475 0 0.0
1.65 0 0.0
1.6525 0 0.0
1.655 0 0.0
1.6575 0 0.0
1.66 0 0.0
1.6625 0 0.0
1.665 0 0.0
1.6675 0 0.0
1.67 0 0.0
1.6725 0 0.0
1.675 0 0.0
1.6775 0 0.0
1.68 0 0.0
1.6825 0 0.0
1.685 0 0.0
1.6875 0 0.0
1.69 0 0.0
1.6925 0 0.0
1.695 0 0.0
1.6975 0 0.0
1.7 0 0.0
1.7025 0 0.0
1.705 0 0.0
1.7075 0 0.0
1.71 0 0.0
1.7125 0 0.0
1.715 0 0.0
1.7175 0 0.0
1.72 0 0.0
1.7225 0 0.0
1.725 0 0.0
1.7275 0 0.0
1.73 0 0.0
1.7325 0 0.0
1.735 0 0.0
1.7375 0 0.0
1.74 0 0.0
1.7425 0 0.0
1.745 0 0.0
1.7475 0 0.0
1.75 0 0.0
1.7525 0 0.0
1.755 0 0.0
1.7575 0 0.0
1.76 0 0.0
1.7625 0 0.0
1.765 0 0.0
1.7675 0 0.0
1.77 0 0.0
1.7725 0 0.0
1.775 0 0.0
1.7775 0 0.0
1.78 0 0.0
1.7825 0 0.0
1.785 0 0.0
1.7875 0 0.0
1.79 0 0.0
1.7925 0 0.0
1.795 0 0.0
1.7975 0 0.0
1.8 0 0.0
1.8025 0 0.0
1.805 0 0.0
1.8075 0 0.0
1.81 0 0.0
1.8125 0 0.0
1.815 0 0.0
1.8175 0 0.0
1.82 0 0.0
1.8225 0 0.0
1.825 0 0.0
1.8275 0 0.0
1.83 0 0.0
1.8325 0 0.0
1.835 0 0.0
1.8375 0 0.0
1.84 0 0.0
1.8425 0 0.0
1.845 0 0.0
1.8475 0 0.0
1.85 0 0.0
1.8525 0 0.0
1.855 0 0.0
1.8575 0 0.0
1.86 0 0.0
1.8625 0 0.0
1.865 0 0.0
1.8675 0 0.0
1.87 0 0.0
1.8725 0 0.0
1.875 0 0.0
1.8775 0 0.0
1.88 0 0.0
1.8825 0 0.0
1.885 0 0.0
1.8875 0 0.0
1.89 0 0.0
1.8925 0 0.0
1.895 0 0.0
1.8975 0 0.0
1.9 0 0.0
1.9025 0 0.0
1.905 0 0.0
1.9075 0 0.0
1.91 0 0.0
1.9125 0 0.0
1.915 0 0.0
1.9175 0 0.0
1.92 0 0.0
1.9225 0 0.0
1.925 0 0.0
1.9275 0 0.0
1.93 0 0.0
1.9325 0 0.0
1.935 0 0.0
1.9375 0 0.0
1.94 0 0.0
1.9425 0 0.0
1.945 0 0.0
1.9475 0 0.0
1.95 0 0.0
1.9525 0 0.0
1.955 0 0.0
1.9575 0 0.0
1.96 0 0.0
1.9625 0 0.0
1.965 0 0.0
1.9675 0 0.0
1.97 0 0.0
1.9725 0 0.0
1.975 0 0.0
1.9775 0 0.0
1.98 0 0.0
1.9825 0 0.0
1.985 0 0.0
1.9875 0 0.0
1.99 0 0.0
1.9925 0 0.0
1.995 0 0.0
1.9975 0 0.0
2 0.0025 0.0
2 0.005 0.0
2 0.0075 0.0
2 0.01 0.0
2 0.0125 0.0
2 0.015 0.0
2 0.0175 0.0
2 0.02 0.0
2 0.0225 0.0
2 0.025 0.0
2 0.0275 0.0
2 0.03 0.0
2 0.0325 0.0
2 0.035 0.0
2 0.0375 0.0
2 0.04 0.0
2 0.0425 0.0
2 0.045 0.0
2 0.0475 0.0
2 0.05 0.0
2 0.0525 0.0
2 0.055 0.0
2 0.0575 0.0
2 0.06 0.0
2 0.0625 0.0
2 0.065 0.0
2 0.0675 0.0
2 0.07 0.0
2 0.0725 0.0
2 0.075 0.0
2 0.0775 0.0
2 0.08 0.0
2 0.0825 0.0
2 0.085 0.0
2 0.0875 0.0
2 0.09 0.0
2 0.0925 0.0
2 0.095 0.0
2 0.0975 0.0
2 0.1 0.0
2 0.1025 0.0
2 0.105 0.0
2 0.1075 0.0
2 0.11 0.0
2 0.1125 0.0
2 0.115 0.0
2 0.1175 0.0
2 0.12 0.0
2 0.1225 0.0
2 0.125 0.0
2 0.1275 0.0
2 0.13 0.0
2 0.1325 0.0
2 0.135 0.0
2 0.1375 0.0
2 0.14 0.0
2 0.1425 0.0
2 0.145 0.0
2 0.1475 0.0
2 0.15 0.0
2 0.1525 0.0
2 0.155 0.0
2 0.1575 0.0
2 0.16 0.0
2 0.1625 0.0
2 0.165 0.0
2 0.1675 0.0
2 0.17 0.0
2 0.1725 0.0
2 0.175 0.0
2 0.1775 0.0
2 0.18 0.0
2 0.1825 0.0
2 0.185 0.0
2 0.1875 0.0
2 0.19 0.0
2 0.1925 0.0
2 0.195 0.0
2 0.1975 0.0
2 0.2 0.0
2 0.2025 0.0
2 0.205 0.0
2 0.2075 0.0
2 0.21 0.0
2 0.2125 0.0
2 0.215 0.0
2 0.2175 0.0
2 0.22 0.0
2 0.2225 0.0
2 0.225 0.0
2 0.2275 0.0
2 0.23 0.0
2 0.2325 0.0
2 0.235 0.0
2 0.2375 0.0
2 0.24 0.0
2 0.2425 0.0
2 0.245 0.0
2 0.2475 0.0
2 0.25264 0.0
2 0.255753 0.0
2 0.259425 0.0
2 0.263757 0.0
2 0.268866 0.0
2 0.274892 0.0
2 0.281999 0.0
2 0.290382 0.0
2 0.30027 0.0
2 0.311933 0.0
2 0.325689 0.0
2 0.341915 0.0
2 0.361053 0.0
2 0.383626 0.0
2 0.41025 0.0
2 0.441654 0.0
2 0.478695 0.0
2 0.522384 0.0
2 0.573915 0.0
2 0.634695 0.0
2 0.706385 0.0
2 0.790944 0.0
2 0.89068 0.0
2 1.00832 0.0
2 1.14707 0.0
2 1.31073 0.0
2 1.50377 0.0
2 1.73145 0.0
1.71429 2 0.0
1.42857 2 0.0
1.14286 2 0.0
0.857143 2 0.0
0.571429 2 0.0
0.285714 2 0.0
0 1.72962 0.0
0 1.49406 0.0
0 1.28882 0.0
0 1.11001 0.0
0 0.954218 0.0
0 0.818486 0.0
0 0.70023 0.0
0 0.597199 0.0
0 0.507434 0.0
0 0.429226 0.0
0 0.361088 0.0
0 0.301722 0.0
0 0.2 0.0
0 0.15 0.0
0 0.1 0.0
0 0.05 0.0
1.74877 0.00217262 0.0
1.71375 0.00216506 0.0
1.67849 0.00212584 0.0
1.64125 0.0020902 0.0
1.60111 0.00213251 0.0
1.5587 0.00168023 0.0
1.51401 0.00199777 0.0
1.46628 0.00222845 0.0
1.4166 0.0019564 0.0
1.36636 0.00224686 0.0
1.3138 0.0023075 0.0
1.25875 0.00216506 0.0
1.20125 0.00216506 0.0
1.14125 0.00211141 0.0
1.07875 0.00216063 0.0
1.01375 0.00213436 0.0
0.953565 0.00405134 0.0
0.878906 0.00675214 0.0
1.99789 0.248725 0.0
1.04625 0.00216673 0.0
1.78118 0.00204692 0.0
1.99783 0.216077 0.0
1.17124 0.00210351 0.0
1.111 0.00202738 0.0
1.81126 0.0022223 0.0
1.99778 0.18623 0.0
1.23125 0.00212236 0.0
1.28625 0.00216506 0.0
1.83861 0.00201183 0.0
1.99798 0.158784 0.0
1.44102 0.00227776 0.0
1.34125 0.00216506 0.0
1.39115 0.00232256 0.0
0.788979 0.0099202 0.0
1.86375 0.00216506 0.0
1.99763 0.133665 0.0
1.99201 0.285598 0.0
1.4913 0.00210295 0.0
1.53614 0.00219849 0.0
1.88626 0.00193508 0.0
0.990614 0.00245609 0.0
1.99785 0.110955 0.0
1.90623 0.0023235 0.0
1.58111 0.00232101 0.0
1.62118 0.00227679 0.0
1.9979 0.09125 0.0
0.685348 0.0145456 0.0
1.92617 0.00221346 0.0
1.9979 0.0735037 0.0
1.73145 0.00222066 0.0
1.66144 0.00213837 0.0
1.69596 0.00216323 0.0
1.98194 0.372339 0.0
0.565902 0.0237401 0.0
0.921627 0.00435804 0.0
1.94364 0.00221395 0.0
1.99772 0.0564535 0.0
1.99783 0.20125 0.0
1.76624 0.00219979 0.0
1.7965 0.00215391 0.0
1.99811 0.231552 0.0
1.9592 0.54707 0.0
1.95875 0.00216506 0.0
[...]
CELL_DATA 14310
SCALARS rho float
LOOKUP_TABLE default
1.06259
1.11477
1.0588
1.1344
1.07698
1.13888
1.1358
1.09061
1.13829
1.04836
1.12786
0.980186
1.05234
1.05836
1.12991
1.13967
1.11567
1.11454
1.08558
1.13298
1.04584
1.11121
1.12757
0.979715
1.13413
1.07538
1.06207
1.12754
1.13358
1.13967
1.08893
1.08275
1.13553
1.13836
1.10483
1.12264
1.13346
1.11593
1.08274
1.10457
1.12982
1.09301
1.02095
1.04873
1.13721
1.14212
1.08948
1.05227
1.06137
1.04796
1.10703
1.12714
1.09947
1.12757
1.03533
1.10239
1.13255
1.05193
1.13158
0.997922
1.1063
1.01142
1.09016
0.984991
1.10616
1.09133
1.00113
0.996959
1.12813
1.03381
1.12843
1.07131
1.04779
1.05093
1.05292
1.13736
1.12987
1.12694
1.13455
1.13083
1.1365
1.13577
1.10539
1.11831
1.13514
1.07808
1.1114
1.12471
1.12221
1.11097
1.12328
1.13474
1.03658
1.13462
1.13472
1.13984
1.10376
1.1379
1.13101
1.13955
1.13162
1.11689
1.1157
0.984739
1.10396
1.11691
1.09895
1.11709
1.02404
1.10926
1.1411
1.13558
1.12314
1.07643
1.13995
0.985812
1.02035
1.11802
1.10414
1.02485
1.03646
1.08562
0.999427
1.10749
1.11126
1.12959
1.13403
1.10903
1.08815
1.11642
1.1077
1.1074
1.05176
1.08587
1.13549
1.06472
1.07576
1.11552
1.11631
1.13603
1.12788
1.13792
1.01263
1.13403
1.12029
1.13729
1.04698
1.00261
1.13887
1.12087
1.13751
1.07068
1.07789
1.13672
1.07478
1.1287
1.13371
1.13329
1.13743
1.11371
1.05956
1.09633
1.07129
1.13718
1.13979
1.08381
1.0597
1.10864
1.1342
1.13521
1.13901
1.07963
1.13851
1.1397
1.12547
0.998762
1.13162
1.01486
1.1369
1.13553
1.12784
1.07616
1.05076
1.13549
1.11331
1.1353
1.10732
1.12986
1.13487
0.999558
1.1297
1.13144
1.08183
1.09765
1.10895
1.06398
1.1319
0.998062
1.11722
1.11897
1.13014
1.12997
1.12117
1.12617
0.984606
1.11818
1.01321
1.11617
1.12811
1.13543
1.13498
1.12457
0.988297
1.12915
1.10771
1.07674
1.08583
1.04653
1.07534
1.1378
1.13534
1.07295
1.1397
1.12841
1.12614
1.14125
0.981583
0.99467
1.12944
1.06501
1.1309
1.10925
1.01983
1.13324
1.13937
1.01742
1.02033
1.13492
1.01096
1.13546
1.13102
1.11926
1.11814
1.07773
1.01964
0.982096
1.13536
1.04511
1.11914
1.11314
1.06653
1.05494
1.13504
1.13764
1.12914
1.13033
1.08563
1.06506
1.08797
1.13305
0.99868
1.06552
1.13534
1.13499
1.04519
1.04942
0.998536
1.13504
1.02516
1.12225
1.13653
1.05828
1.14159
1.1176
1.04986
1.13618
1.036
1.03676
1.13953
1.13348
1.0046
1.1276
1.13548
1.1382
1.08288
1.13108
1.13504
1.10591
1.12724
1.13875
1.13531
1.13782
1.13517
1.1012
1.08977
1.07103
1.13541
1.10308
1.07937
1.13263
1.13917
1.13855
1.14171
1.0773
1.12656
1.13117
1.13008
1.1065
1.13496
1.12735
1.08115
1.13182
1.13372
1.11377
1.13426
1.05533
1.13828
1.12964
1.13661
1.07627
1.00988
1.11218
1.10928
1.13617
1.02392
1.12831
0.981378
1.13984
1.04657
1.11314
1.00713
1.1325
1.03491
1.13432
1.04426
1.03594
1.01124
1.13486
1.12305
1.04925
1.13726
1.06535
1.13587
1.08426
1.12669
1.10261
1.10278
1.04694
1.13393
1.13578
1.07711
1.13521
1.13718
1.0232
1.12254
1.10652
1.12571
1.07887
1.13269
1.13793
1.12801
1.13479
1.11444
1.05383
1.06452
1.00533
1.14032
1.13436
1.12894
1.13045
1.13239
1.13461
1.13949
1.1394
1.1337
1.11088
1.10989
1.09732
1.13849
1.09637
1.07192
1.12813
1.13966
1.13346
1.13317
1.13623
1.09582
1.13059
1.13355
1.11878
1.13417
1.13573
1.04221
1.13456
1.0161
1.10525
1.01574
1.1415
1.13704
1.12961
1.12505
1.13254
1.13348
1.13822
1.05021
1.01784
1.10493
1.06124
1.12829
1.12462
1.09432
1.13559
1.10661
1.07048
1.13644
1.00808
1.1344
1.1316
1.13181
1.02559
1.13185
1.13358
1.12357
1.13921
1.11611
1.11901
1.11476
1.01867
0.978241
1.06394
1.10818
1.04899
1.12197
1.10593
1.13558
1.01094
1.03509
1.09275
1.12806
1.09889
1.13159
1.1332
1.12616
1.13876
1.13251
1.13359
1.1099
1.1283
1.09948
1.1068
1.06911
1.13251
1.13635
1.13568
1.08406
1.00594
1.13369
1.13253
0.973063
1.1355
1.13174
1.01853
1.13479
0.981568
1.05443
1.13171
1.06034
1.10598
1.05877
1.12999
1.11852
1.13053
1.10486
1.05136
1.02392
1.06385
1.13105
1.08654
1.13435
1.09821
1.05068
1.13318
0.986003
1.10715
1.1073
1.07586
1.0761
1.10321
1.1274
1.12541
1.1178
1.13081
0.98241
1.12912
1.00982
1.01497
1.13026
1.1299
1.05969
1.01321
1.13519
1.10649
1.09495
1.13578
1.13323
1.13928
1.11335
1.14212
1.13104
1.13162
1.14168
1.13271
0.972751
1.01033
1.03154
1.10954
1.10784
1.1337
1.13066
1.11277
1.13426
1.14161
1.13953
0.989438
1.14001
1.12005
1.13572
1.06897
1.04898
1.11556
1.12042
1.10777
1.13965
1.13094
1.09072
1.13159
1.13392
1.01739
1.09374
1.0714
1.11208
1.11375
1.13151
1.11572
1.12694
1.10241
1.10896
1.02186
1.11941
1.13474
1.10471
1.1285
1.00665
1.12104
1.09645
1.12789
1.13494
1.13837
1.13968
1.12258
1.1392
1.13111
1.07345
1.14101
1.01947
1.04377
1.13665
1.13384
1.1214
1.0385
1.09752
0.986898
1.12143
1.12563
1.0754
1.13385
1.14137
1.06801
1.13733
1.01942
1.07374
1.10885
1.08968
1.10483
1.13364
1.0404
1.13489
1.02316
1.11993
1.09837
1.13935
1.13955
1.13597
1.12329
1.13226
1.13202
1.13279
1.06404
1.05923
1.11973
1.01653
1.13556
1.071
1.12687
1.09464
1.14054
1.13948
1.13887
1.01076
1.08979
1.06871
0.989652
1.1212
1.12945
1.12993
1.04497
1.13853
1.13159
1.1345
1.13717
1.13134
1.13364
1.10534
1.02327
1.08666
1.11502
1.06788
1.08823
1.13737
1.06159
1.13641
1.05774
1.13519
1.13527
1.11192
1.13241
1.1415
1.12117
1.07805
1.12054
1.01834
1.13627
1.12601
1.07662
1.0438
1.13258
1.13876
1.11514
1.05709
1.00379
1.13497
1.14164
1.13
1.0759
1.11919
1.13398
1.12376
1.13025
1.12907
1.1413
1.12342
1.11524
0.993137
1.03044
1.1205
1.12741
1.1157
1.13905
1.06085
1.13453
1.10454
1.08893
1.07303
1.08247
1.11777
1.13534
1.1387
1.13213
1.09881
1.12083
1.10765
1.13968
1.13523
0.993895
1.11302
0.980316
1.13737
1.1347
1.10554
1.12732
1.13228
1.12879
1.03774
1.12628
1.02407
1.06432
1.03902
1.13484
1.06004
1.11342
1.05891
1.10788
1.12598
1.13915
1.05152
1.1263
1.13986
1.0449
1.13343
1.1375
1.10392
1.04214
1.1331
1.10235
0.996049
1.02205
1.08038
1.02082
1.13203
1.11218
1.05263
1.04933
1.04081
1.13618
1.13364
1.13831
1.11175
1.13884
1.13537
1.13973
1.11394
1.08179
1.14103
1.13037
1.07079
1.12715
1.07804
1.07657
1.11965
1.13929
1.12431
1.05259
1.07898
1.07841
1.05683
1.13336
1.13955
1.11393
1.12633
1.11254
1.12499
1.13156
1.07387
1.13071
1.13337
1.11432
1.10826
1.07442
1.11365
1.09871
1.13969
1.01793
1.13241
1.13075
1.06545
1.13926
1.13073
1.13113
1.12266
1.00503
1.11854
1.12423
1.12476
0.997417
1.10648
1.09697
1.07701
1.14024
1.12997
1.13939
1.11088
1.1336
1.05742
1.07335
1.13983
1.07189
1.07722
1.13647
1.06189
0.99931
1.13527
1.08864
1.08595
1.04829
1.05088
1.01214
1.13276
1.08202
1.10805
1.04498
1.14064
1.13356
1.02037
0.997659
1.00095
1.12385
1.13352
1.03109
1.13969
1.00785
1.06993
1.12309
1.03714
1.11055
1.13172
1.12242
1.12844
1.09066
1.07756
1.13934
1.13529
1.13201
0.995207
1.11902
1.03545
1.1368
1.10587
1.13583
1.13522
1.13065
1.05047
1.13679
1.12302
1.13836
1.12155
1.05382
1.14217
1.13165
1.12973
1.12922
1.06138
1.13401
1.07037
1.13447
1.08723
1.13419
1.14031
1.1079
1.0025
1.13386
1.09628
1.13243
1.12181
1.09975
1.13518
1.12234
1.13041
1.10421
1.05712
1.13974
1.09009
1.14048
1.13512
1.09796
1.13093
1.12953
1.08699
1.12831
1.13678
1.07927
1.1068
1.11642
1.10967
1.11436
1.13835
1.10447
1.12971
1.10559
1.10815
1.05385
1.01329
1.10104
1.10494
1.13485
1.07134
1.13787
1.06397
1.07004
1.12445
1.05348
1.10384
1.11969
1.053
1.09537
1.01398
1.11503
1.13957
1.13891
1.0719
1.11331
1.01622
1.13397
1.06115
1.09738
1.13897
1.08464
1.13556
1.0687
1.09869
1.11489
1.0457
1.10056
1.07144
1.12695
1.11229
1.132
1.13912
1.13049
1.10753
0.987233
1.11094
1.10017
1.13184
1.09585
1.07189
1.05504
1.10465
1.03558
1.13527
1.06303
1.12336
1.07577
1.12473
1.13876
1.0964
1.14164
1.1041
1.09436
1.0309
1.05184
1.01041
1.03018
1.13309
1.139
0.984522
1.10749
1.03852
1.11193
1.11189
1.1422
1.05407
1.1311
1.14086
1.13512
1.10246
1.11779
1.02437
1.12791
1.11116
1.01473
1.1052
1.13504
1.09436
1.13824
1.10121
1.09279
1.14169
1.10633
0.994976
1.13983
1.06037
1.13217
1.13956
1.05119
1.05551
0.992344
1.03796
1.06113
1.11867
1.09881
1.04037
1.13033
1.09027
1.09556
1.12934
1.13474
1.1159
1.06268
1.08816
1.14164
1.1393
1.10423
1.13035
1.0155
0.980199
1.13198
1.11615
1.1354
1.10253
1.12908
0.995117
1.13384
1.07612
1.13535
1.13366
1.10589
1.08635
1.13521
1.02303
1.06645
1.13931
1.13369
1.12092
1.13281
1.12812
1.11109
1.13024
1.07614
1.13469
1.08654
1.0379
1.10427
0.980965
1.09301
1.12721
1.13512
1.11593
1.12999
1.11268
1.11906
1.09703
1.08927
1.02797
1.13748
1.10281
1.13407
1.11739
1.13932
1.13518
1.1349
1.14208
1.13583
1.13591
1.13183
1.11108
1.09839
1.13535
1.06229
1.08051
1.08393
1.12551
1.13283
1.10521
1.11275
1.06358
1.07154
1.08394
1.08696
1.00586
1.12365
1.07949
1.13122
1.13536
1.13491
1.13942
1.13365
1.1081
1.1421
1.1416
1.01213
1.1364
1.11592
1.12135
1.08237
1.13014
1.14179
1.0068
1.13852
1.03679
1.13586
1.01501
1.11231
1.13112
1.06493
1.13552
1.06012
1.10003
1.13391
0.972538
1.13965
1.0883
1.10636
1.13676
1.13857
1.05591
1.10112
1.12923
1.12166
1.1259
0.996138
1.13104
1.03878
1.0799
1.08456
1.1349
1.00438
1.11784
1.06024
1.11997
1.05778
1.07101
1.04373
1.00877
1.10679
1.13256
1.13545
1.11517
1.1011
1.13237
1.09302
1.13181
1.12608
1.0068
1.13416
1.08735
1.07793
1.13881
1.13228
1.04386
1.03819
1.05592
1.1333
1.07234
1.13877
1.08225
1.13866
1.13806
1.05221
1.10199
1.13423
1.03294
1.13671
1.06258
1.09777
0.992643
1.09773
1.13382
1.13432
1.11535
1.00822
1.10819
1.13439
1.13969
0.99747
0.993241
1.13537
1.12365
1.0253
1.13944
1.10967
1.13406
1.07965
1.13346
1.12915
1.13423
0.982945
1.13406
1.0074
1.13434
1.00557
1.13519
0.971853
1.11584
1.07451
0.992763
1.12019
1.13848
1.01253
1.06765
1.10109
1.13969
1.13398
1.13965
1.06088
1.04498
1.1387
1.00039
1.10306
1.0652
1.13794
1.0842
1.12857
1.07204
1.07324
1.13492
0.981481
1.01304
1.12433
1.04549
1.02834
1.00994
1.05415
1.13301
1.07371
1.13584
1.04841
1.13405
1.08456
1.0995
1.11515
1.07707
1.12739
1.13979
1.02067
1.09032
1.01688
1.13228
1.13757
1.1255
1.12727
1.13925
1.0141
1.13686
1.07113
1.05546
1.13162
1.09158
1.10155
1.10028
1.13531
1.13126
1.12725
1.13785
1.1421
1.05968
1.12636
1.01046
1.06233
1.04096
1.09134
1.12494
1.13102
1.07416
1.14215
1.08141
1.13963
1.13367
1.01375
1.05381
1.05236
1.03524
1.12996
1.10552
1.09
1.13319
1.09176
1.12478
1.14208
1.13521
0.990326
1.12189
1.13785
1.07333
1.05192
1.13138
1.12369
1.05383
1.13445
1.06477
1.01882
1.12387
1.0629
1.11342
1.13093
1.13758
1.14044
1.10557
1.11666
1.12807
1.05116
1.00617
1.13474
1.03721
1.12635
1.02953
1.13682
1.1352
0.990657
1.10329
1.13516
1.09152
1.12766
1.0822
1.10186
1.03133
1.0234
1.12102
1.13266
1.14025
1.13395
1.12159
1.13441
1.13318
1.1085
1.05459
1.13014
1.13834
1.1205
1.13304
1.13673
1.12656
1.12943
1.12624
1.09385
1.13908
1.13033
1.03858
1.08278
1.09786
1.13333
1.06081
1.00271
1.06627
1.00829
1.08462
1.11782
1.06909
1.10327
1.1259
1.10181
1.10159
1.13309
1.10871
1.13458
1.1353
1.05829
1.13856
0.984102
1.07342
1.11265
1.12958
1.13526
1.09692
1.13826
1.13166
1.02608
1.10048
1.01064
1.06178
1.05373
1.13604
1.11353
1.08841
1.05185
1.13201
1.08667
1.09351
1.10401
1.0773
1.06442
1.13861
1.11056
1.09237
1.03549
1.11744
1.07737
1.14117
1.08535
1.01109
1.13443
1.01678
1.13633
1.11584
1.12145
1.06398
1.09058
1.13248
1.13319
1.09949
1.08037
1.05765
1.0999
0.98951
1.05925
1.13918
1.13145
1.0636
1.05333
1.13005
1.13312
1.06943
1.12716
1.14048
1.14116
1.07364
1.13209
1.13669
1.13966
1.13512
1.13351
1.13553
1.13549
1.05066
1.1212
1.00871
1.10756
1.07048
1.11574
1.08646
1.05122
1.13966
0.998125
1.13918
1.10401
1.1284
1.09611
1.14204
1.13036
1.13515
1.13538
1.12369
1.13444
1.07673
1.12051
1.10291
1.08383
1.11042
1.10905
1.13157
1.13074
1.13163
1.05997
1.13992
1.0798
1.01665
1.11241
1.13401
1.13868
1.13338
1.13351
1.13238
1.12921
1.13399
1.13436
1.13989
1.10365
1.08253
1.13964
1.13636
1.0494
1.01946
1.12444
0.980979
1.1231
1.10249
1.13454
1.13541
1.02984
1.12741
1.13057
1.04795
1.02566
1.13494
1.1005
1.11559
1.13907
1.11705
0.980099
1.03628
1.12862
1.14086
1.12282
1.08124
1.13386
1.10408
1.1272
1.0572
1.13543
1.13696
1.13303
1.134
1.12239
1.07024
1.13578
0.990672
1.07912
1.10196
1.13151
1.13005
1.1335
1.13908
1.04229
1.13825
1.13393
1.10938
1.09746
0.995736
1.14052
1.12966
1.05681
1.13178
1.12761
1.13241
1.13523
1.02352
1.13395
1.1406
1.13692
1.13487
1.05739
1.12384
1.04578
1.129
1.12057
1.09487
1.13488
1.13249
1.08933
1.10802
1.11954
1.1389
1.14074
1.11259
1.14102
1.13396
1.00062
1.14126
1.11049
1.13513
1.05955
1.0775
1.13333
1.1117
1.01213
1.00281
1.1351
1.04911
1.13528
1.13068
1.04965
1.08391
1.0907
1.0873
1.13431
1.1257
1.06254
1.04017
1.08661
1.05405
1.13292
1.00945
1.06492
1.11267
1.13429
1.13342
1.00372
1.06342
1.02469
1.13518
1.13036
1.02268
1.06467
1.01779
1.01862
1.08486
1.00923
1.11297
0.987293
1.06592
1.13965
1.13521
1.11625
1.13881
1.06627
1.01394
1.13514
1.14108
1.01204
0.980408
1.08656
1.13125
1.14209
1.13462
1.14055
1.08318
1.06932
1.00327
1.06372
1.02633
1.12764
1.12058
1.11644
1.08893
1.06751
1.09463
1.13977
0.98052
1.13582
1.09994
1.13408
1.13515
1.1398
1.13564
1.14032
1.11681
1.00572
1.08154
1.03458
1.10207
1.11126
1.0645
1.02977
1.06957
1.06258
1.13508
1.13278
1.08347
1.13363
1.02146
1.1326
1.07645
1.03739
1.03094
1.13505
1.07005
1.02355
1.10464
1.13617
1.12768
1.09727
1.12036
1.07588
1.13515
1.13442
1.00556
1.04046
1.13488
1.13806
1.05511
1.06836
1.13517
0.995335
1.13868
1.13741
1.13976
1.13462
1.1318
1.06097
1.07934
1.1207
1.12367
1.12461
1.12676
1.12913
1.10303
1.14082
1.11234
1.03623
1.13517
1.06032
1.1251
1.12608
1.14187
1.14048
1.08301
1.14084
1.13265
1.11355
1.14219
1.05429
1.08221
1.13464
1.09224
1.12192
1.09326
1.13943
1.04726
1.09373
1.10798
1.1415
1.13775
1.07406
1.13751
1.0999
1.00608
1.06948
1.13422
1.09102
1.0475
1.14198
1.11231
1.0049
1.10384
1.05201
0.994519
1.0621
1.14096
1.13704
1.13366
1.13484
1.13461
1.11426
1.13688
1.01131
1.13918
1.05225
1.14001
1.13591
1.12784
1.00056
1.13375
1.1401
1.07532
1.02448
1.11499
1.13992
1.1389
1.13657
0.998231
1.02796
1.14092
1.13937
1.13867
1.1396
1.13363
1.11209
1.13519
1.13477
1.12699
1.13701
1.12612
1.12748
1.13388
1.08599
1.02687
1.13114
1.09111
1.1244
1.13428
1.10598
1.04038
1.1262
1.13955
1.09075
1.1055
1.13465
1.13953
1.1293
1.06091
1.067
1.13381
1.13504
1.13645
1.13315
1.11863
1.12811
1.00685
1.11922
1.11855
1.12422
0.991025
1.0899
1.13342
1.13121
1.13993
1.09963
1.03606
1.13044
1.10814
1.08255
1.00863
1.12965
1.04416
1.09289
0.990444
1.12977
1.02675
1.13596
1.13433
1.1335
1.10044
1.02421
1.13393
1.02861
1.12916
0.991863
1.04102
1.05211
1.10309
1.07291
1.0921
1.08514
1.12949
1.12977
1.03159
1.01873
1.13323
1.12847
1.13198
1.13291
1.1253
1.11651
1.12997
0.977892
1.12989
1.13583
1.12696
1.03605
1.13272
1.12308
1.13724
1.14031
1.11358
1.14018
1.13527
1.13659
1.11673
1.07405
1.13739
1.02372
1.13481
1.0838
1.08592
1.08993
1.13561
1.13764
1.12168
1.1349
1.1327
1.13119
1.03403
1.02596
1.04782
1.08402
1.13943
1.07663
1.13654
1.13129
1.11301
1.12515
1.04923
1.01799
1.13358
1.13521
1.13703
1.01265
1.0387
1.11611
1.1289
1.11686
1.13642
1.10036
1.1346
1.118
0.995837
1.13936
1.13833
1.12404
1.13943
1.13477
1.11494
1.04034
1.13615
1.08643
1.13601
1.13415
1.10363
1.04026
1.07561
1.12716
1.12341
1.13734
1.04741
1.07167
1.13338
1.13355
1.09092
1.11847
1.06129
1.13712
1.13558
0.98713
1.08181
1.13453
1.13698
1.06327
1.11869
1.13502
1.04055
1.01783
1.12417
1.12653
1.13108
1.13578
1.13239
1.13305
1.00421
1.14219
1.13298
1.13371
1.12514
1.02525
1.12962
1.13503
1.13002
1.1353
1.12978
1.13417
1.13788
1.11306
1.13684
1.13742
1.13364
1.1203
1.05148
1.11515
1.03289
1.1248
1.1343
1.13
1.00913
1.05918
1.13659
1.09854
1.09443
0.981984
0.977173
1.08357
1.12977
1.12993
1.13493
1.13455
1.13618
1.13947
1.05699
1.13992
1.05872
1.13559
1.00786
1.05822
1.12784
1.11702
1.13531
1.13834
1.13922
1.07479
1.1396
1.12088
1.13511
1.13765
1.10334
1.13864
1.10988
1.13368
1.01712
1.13733
1.00875
1.12184
1.10219
0.993765
1.09894
1.13566
1.10952
1.13939
1.0644
1.13511
1.0162
1.14125
1.13057
1.01919
1.14143
1.09313
1.13522
1.00626
0.997894
1.13538
1.13869
1.10381
1.14079
1.13515
1.12061
1.13464
1.14
1.13499
1.12525
1.11687
1.13517
1.1363
1.13527
1.12545
1.12221
1.07424
1.13307
1.12545
1.12329
0.999344
1.04634
1.03132
1.1245
1.13522
1.11865
1.13523
1.01652
1.13449
1.13672
1.13475
1.11369
1.13947
1.12004
1.13875
1.08968
1.05518
1.13521
0.994404
1.13751
1.13239
1.06672
1.00301
1.02444
1.11366
1.13522
1.12866
1.13477
1.13496
1.09095
1.0054
1.1352
1.13874
0.991914
1.14016
1.12983
1.10795
1.13246
1.12868
1.13518
1.07074
1.13509
1.1204
1.13435
1.13491
1.10916
1.13859
1.13536
1.13164
1.13571
1.13537
1.12206
1.13724
1.13597
1.12888
1.13875
1.13473
1.08179
1.13533
1.13537
1.13229
0.991692
1.07464
1.09935
1.14088
1.12627
1.12408
1.13819
1.1323
1.10427
1.12324
1.1181
1.11454
1.13963
1.06348
0.978448
1.05449
1.13071
1.13314
1.09768
0.995184
1.13337
1.12869
1.13503
1.12736
1.02075
1.11646
1.13546
1.13632
0.992496
1.12802
1.12264
1.08934
1.13473
1.1351
1.13604
1.07497
1.13667
1.12069
1.1349
1.13108
1.07486
1.10514
1.13848
1.13145
1.05451
1.13448
1.04866
1.12648
1.13462
1.10349
1.12839
1.13416
1.14093
1.13332
1.1269
1.12473
1.13488
1.13338
1.13489
1.13016
1.12343
1.14067
1.11961
1.13444
1.01389
1.11933
1.13528
1.12505
1.13169
1.13415
1.12946
1.12642
1.13365
1.13506
1.00961
1.13158
1.13888
1.14172
1.12909
1.13966
1.13329
1.02518
1.13441
1.01848
1.09497
1.12349
1.0458
1.13473
1.12938
1.053
1.13464
0.986015
0.979422
1.13857
1.13508
1.13474
1.08289
1.09202
0.987437
1.04101
1.14032
1.09979
1.13441
1.1366
1.13352
1.13698
1.13849
0.980478
1.13648
1.14046
1.12187
1.10946
1.11914
1.13539
1.12483
1.13425
1.1046
1.00605
1.13169
1.13577
1.12212
1.02154
1.13326
1.13259
1.13658
1.13465
1.1324
1.13427
1.13451
1.11834
1.00729
1.06718
0.991568
1.07133
1.1359
0.991173
1.13462
1.13515
1.13481
1.13405
1.11759
1.13452
1.12805
1.04921
1.0237
1.13532
1.1353
1.00572
1.12265
1.13375
1.13495
1.07855
1.12658
1.1009
1.11259
1.13395
1.13185
1.13427
1.13426
1.13451
1.03795
1.12469
1.01557
1.13099
1.06104
1.12738
1.13293
0.997444
1.13494
1.12941
1.13067
1.04426
1.13465
1.05448
1.14219